<?xml version="1.0"?>
<VTKFile type="UnstructuredGrid"  version="0.1"  >
<UnstructuredGrid>
<Piece  NumberOfPoints="3262" NumberOfCells="6286">
<Points>
<DataArray  type="Float64"  NumberOfComponents="3"  format="ascii">0 2 0  0 0 0  2 0 0  2 0.8 0  2.5 0 0  3 0 0  3 2 0  1.5 2 0  2.211999576001272 0.4608006783979648 0  2 0.3999999999999999 0  3 1 0  0 1 0  1 0 0  1.011111111111111 1.011111111111111 0  2.25 2 0  0.75 2 0  0.5109903381642511 0.5109903381642511 0  1.597550531003769 1.336479387918237 0  2.411956521739131 1.340217391304348 0  0.50116189596799 1.405378578024008 0  1.379421142997302 0.501447142506745 0  1.125 1.605936426474675 0  0.5 0 0  0 0.5 0  3 0.5 0  3 1.5 0  0 1.5 0  1.5 0 0  2.592588470588 0.75 0  1.875 2 0  2.625 2 0  0.4488639481044336 0.9575557529407043 0  0.9444375126638299 0.4363099998933573 0  1.571038193012494 0.8973987148680825 0  2.003752726107222 1.556394669008685 0  0.375 2 0  1.945724063287846 1.1784759247826 0  2.355999788000636 0.2304003391989824 0  1.125 2 0  0.7502245075457283 0.7718769417296338 0  3 0.25 0  2.75 0 0  0 0.25 0  0.25 0 0  2.673897362816854 0.375 0  2.649548318451139 1.627786238838354 0  2.258341697816869 1.030177624016303 0  2.661927615515405 1.093970040263673 0  1.6875 1.70509233300976 0  1.24877884666565 1.273921383371063 0  1.711661619030727 0.5850039033638781 0  0.8638902239521392 1.347614510503731 0  0.8006109985651382 1.672701477139807 0  2.317792455345992 1.672218970438692 0  0 1.25 0  0.2512588526722385 0.7024606056780824 0  1.75 0 0  1.26043268475475 0.8033719142593041 0  1.195221645166297 0.2465536045851656 0  0.2919272149846506 1.671679588761512 0  0.75 0 0  1.608873971290004 0.2914008982624848 0  0.375 0.2583018484455085 0  2.283808055300746 0.7415305062615514 0  1.420446763528338 1.574977780726156 0  0.7204554674455156 1.084405116567336 0  0.6953540064598539 0.2858321199614743 0  0.5625 1.803444085876441 0  0.2382586312449733 1.125 0  2.751558452450553 1.363100234454857 0  1.3125 2 0  3 1.75 0  1.007451407109441 0.7532355899336185 0  0.2441863008047004 1.418820071687889 0  2.0625 2 0  3 1.25 0  1.25 0 0  0 0.75 0  3 0.75 0  0 1.75 0  1.455538005817411 1.124713549892809 0  2.177459171940204 1.263327846381552 0  1.705342191200666 1.108640100230228 0  2.443537045782983 0.5511241526183802 0  2.796294235294 0.625 0  2.787254086354 0.8897322436230302 0  2 0.2 0  1.911098044930715 1.769989789883736 0  1.831516653401261 1.389426707115596 0  0.2814867726208188 0.4715656893481575 0  0.9964874403544394 1.802968213237337 0  1.241851343809711 1.034554483843515 0  0.4746049805395071 0.7335326237947963 0  0.4567190199892648 1.183603576316918 0  2.8125 2 0  0.1875 2 0  2.4375 2 0  1.148206035149369 0.5605222545287192 0  1.774745096514139 0.8012486850986051 0  1.459067122343294 0.7072446410800244 0  0.9109487986455365 0.2103524942766982 0  0.7330774103602435 0.5047800145708777 0  1.291370791820103 1.768414401667149 0  2.433961608426106 0.9002250097559372 0  2.239345935239761 1.470615100132388 0  2.502489622396397 1.790515948983857 0  0.1979356412235109 0.9122897018308341 0  2.117183109735184 1.732492974435591 0  1.409543980195102 0.1998357555408509 0  1.888350931588688 0.9771185148446503 0  2.625 0.1698546027872574 0  2.449639636956706 1.128471100183106 0  2.71875 1.819266630809951 0  1.817126061186773 0.2999999999999999 0  0.4888288575408579 1.611037544583982 0  0.6690904917334096 1.51864826616803 0  1.493737453689655 1.763666113209075 0  2 0.6 0  2.105999788000636 0.6304003391989824 0  1.072929980750695 1.397443575831697 0  1.00718784796912 1.209851086843067 0  0.6370344226840938 1.262809641425645 0  0.9425205528021725 1.540761196404054 0  2.818596038391842 0.1814039616081586 0  1.607965447509278 1.529219197704148 0  0.1889435773631001 0.1889435773631001 0  0.9375 2 0  0.5625 2 0  1.6875 2 0  2.077773750863448 0.9727747561938527 0  2.575321226784269 1.447178692715132 0  2.84705574281523 1.625 0  2.852648722396789 1.125 0  0.8848673208936707 0.6128815415823254 0  2.013708495780401 1.351673236797603 0  2.59667446058236 1.265192259328817 0  2.627306133218469 0.5527724719352015 0  0.129552687042274 0.375 0  1.401577783493233 0.9542953741167931 0  1.424240507992639 1.299202507955451 0  1.250823320901874 1.463764162596621 0  0.8876317768577149 0.8838997691252936 0  0.5973313094239197 0.8611247348995755 0  2.614819881472177 0.9244923649219003 0  1.819172039595468 1.574479995007546 0  2.830987043699497 0.4530528462304997 0  2.514037474664861 0.3047031944702923 0  0.625 0 0  0.5430684564260875 0.1802386618161025 0  0.6258405020500604 0.6440138027788171 0  0.28125 1.849051064961601 0  1.842230429844806 0.4713050397061805 0  1.542130635718485 0.5567874134273708 0  2.476104517234355 1.593512230759008 0  0 1.625 0  2.336134725368385 1.846913576069558 0  2.283999682000954 0.3456005087984736 0  0.5402601181225409 0.3468976881271978 0  0.8276488094170121 1.844444717030175 0  1.621203521423626 0.7398153870001479 0  1.137958727608234 0.9098660718642163 0  1.307602495309589 0.6475524788754802 0  1.718414327839762 0.1645772526909288 0  0.3788426544929823 0.6036299944142968 0  0.1494225314776763 0.5717024434347129 0  0.3410692262486476 0.8369738133015865 0  1.765919755450255 1.85254616650488 0  1.875 0 0  0.1563654903014668 1.5625 0  1.233619642928771 0.4128080878399 0  0.3676885678754461 1.316785537394545 0  1.720681394890776 0.9505727795824076 0  1.062987896397525 0.1506913056084082 0  1.083770125709243 0.3598557817246967 0  0.8466814199396723 1.186305615076537 0  2.876052890717138 1.852352168037853 0  0 1.875 0  0.3556830270886622 1.528705631114009 0  1.648283066957279 0.4423981413178868 0  1.564164260171227 0.1420661191967334 0  1.458048772065928 0.3569899978253629 0  2.154959867961345 0.8341376617503735 0  2.438196355724811 0.7458347864543132 0  1.798863501105054 1.235357525153377 0  2.095175958839141 1.129181264337876 0  1.611286694994532 1.864888054810145 0  0.6453313485621964 1.672100649059882 0  2.323101380384553 1.215178162153317 0  0.1466327198704184 1.713333807243555 0  1.886814744119828 0.7 0  0.4227988592277655 1.746627334924464 0  0.861910582094675 1.032400456795073 0  0.5892397964754383 1.011174210951927 0  2.187733285837064 1.864190123178316 0  1.395127264606236 1.875704641052093 0  1.27562234909594 1.618122736092985 0  1.486637899612646 1.439123974931075 0  1.140505792844387 1.75647655558727 0  0.1642291178762303 1.273463337235167 0  0.6875 0.1361908455733312 0  1.150500086498093 1.156981968998673 0  0.7382153746963216 0.9268906859288982 0  0.8090885529738965 0.3789600474012871 0  2.247903815651009 0.6011655923297581 0  2.188658126759978 1.606402526559703 0  0.4059469117155238 0.3990056838010073 0  0.375 0 0  2.289987203340442 0.8860673108718859 0  1.21875 1.891796798633971 0  1.863761271718989 0.146086705175632 0  2.739704978723279 1.217557525936057 0  2.74670564241761 1.513230342272083 0  3 1.375 0  2.86998151381852 1.442071630079152 0  0.1399394020581555 1.854594613991914 0  0 1.375 0  1.320265892058019 0.3052349153918412 0  2.427999894000318 0.1152001695994912 0  2.032949546940017 1.854616766817015 0  0.8096410287222521 1.48227805590295 0  0.7091512939786692 1.383701134497845 0  2.864005834630655 1.280688105165543 0  2.550913361764174 0.4377595559385258 0  2.410377701597581 0.4121819150298512 0  2.799975615836312 0.3183603587271356 0  0.2612699339794535 0.3355668417624186 0  0.46875 1.901722042938221 0  0.65625 1.901722042938221 0  0 1.125 0  0.3114905647169409 1.000940478737898 0  0.1337486176719195 1.034634600831562 0  1.022447332607765 0.6164292734026628 0  0.9381276177922918 1.678322524013303 0  1.147868133973081 0.7080345492262268 0  0.125 0 0  0 0.125 0  2.383628324709557 1.482161923783011 0  0.3125 0.1245335132804164 0  2.853971842747005 0.75949006523681 0  3 0.875 0  0.8188808195524515 0.1140469417428978 0  3 0.375 0  1.729911500265814 1.475587175974661 0  2.543494369095996 1.035603717803681 0  2.722567042382544 0.7743862270555368 0  0.756861293708922 0.6409894025477213 0  1.53538982914795 1.638909393627163 0  0.8782953184188317 0.7550685403915092 0  0.1151932435179436 1.438655364424153 0  3 0.125 0  2.875 0 0  0.6041070182648562 1.138707065579982 0  0.1367589832825457 0.7850530907393953 0  1.375 0 0  1.283554256715735 0.136816985837318 0  2.101539259849523 1.458547312946618 0  1.515252169915642 1.01205408973096 0  1.585237555063824 1.191236098381021 0  1.349592477296532 1.195761799118195 0  0 0.875 0  1.456425098190816 0.8368441600630097 0  1.122147213446688 1.280578071776896 0  1.014057176518819 0.8847173972884032 0  0.7225819787557262 1.772985632262358 0  1.838103978032983 1.100287890535467 0  1.625 0 0  1.125 0 0  0 0.625 0  0 0.375 0  3 1.125 0  3 1.625 0  2.625 0 0  3 0.625 0  3 1.875 0  0.875 0 0  0.6202986312959486 0.4458312392192381 0  2.518017973937673 0.6505956407466725 0  2.363672550541865 0.646327329439966 0  2.328042469501234 0.5052596304213588 0  2.280375423332909 1.345483572418049 0  2.219932510644558 1.147457685934385 0  1.984976952936813 1.058439107643389 0  2.868181200249097 0.9939602476018545 0  2.601544946053043 1.873151714984004 0  2.676179653521605 0.6630450163684467 0  0.7591424728764606 1.271923165822763 0  1.905715234516663 1.293206373021447 0  1.939211418837289 1.450653178076577 0  1.721481204222824 1.332252610385152 0  2.717205490531467 0.9873192620933299 0  1.098059690166384 1.871300645219876 0  1.364376345198181 1.409772341484859 0  2.893648719289768 0.5551692025815028 0  1.265081466226479 0.5359470649469801 0  1.04572510813112 0.4993949493396924 0  0.1191293156224866 1.157159236471499 0  0.4380056629093162 0.1100786800225474 0  2.048267674910614 1.238166381944384 0  0.4094963712070978 1.072084152566535 0  1.832458421749407 0.5919034613599501 0  1.919425364101895 1.646708332928935 0  1.809838577350044 1.701228022690358 0  1.879197944284248 1.882821092125603 0  2.816626263253309 1.744406336885663 0  1.374022181258838 1.683782764119569 0  1.348623947732214 1.07980164764107 0  1.126234443685575 1.025261754534039 0  1.25357562
[...]
<PointData  Scalars="f_29-1"> 
<DataArray  type="Float64"  Name="f_29-1"  format="ascii">0.0000000000000000e+00  0.0000000000000000e+00  0.0000000000000000e+00  0.0000000000000000e+00  0.0000000000000000e+00  0.0000000000000000e+00  0.0000000000000000e+00  0.0000000000000000e+00  0.0000000000000000e+00  0.0000000000000000e+00  -1.3835640218832842e-04  0.0000000000000000e+00  0.0000000000000000e+00  1.4664629548142647e-03  0.0000000000000000e+00  0.0000000000000000e+00  2.5170551472801815e-04  1.3030632930272075e-03  5.2562935621236686e-06  3.0920157987540425e-04  8.1080722773734892e-04  6.1741074627527951e-04  0.0000000000000000e+00  0.0000000000000000e+00  -6.8124135335833686e-05  -8.3560152189985975e-05  0.0000000000000000e+00  0.0000000000000000e+00  -8.0229475460448675e-05  0.0000000000000000e+00  0.0000000000000000e+00  3.7803224187541465e-04  5.3381177240774890e-04  1.5888003629674421e-03  2.9559977513387247e-04  0.0000000000000000e+00  5.7150790170400244e-04  0.0000000000000000e+00  0.0000000000000000e+00  7.9938764198639832e-04  -2.2262724239886139e-05  0.0000000000000000e+00  0.0000000000000000e+00  0.0000000000000000e+00  -2.6441134220350196e-05  -3.0596713406080700e-05  9.1789169903225344e-06  -1.0094612539491947e-04  3.3955550871081280e-04  1.5861189259458808e-03  4.7309563232094504e-04  8.7299079113623283e-04  2.7968690208538075e-04  3.6001093764680254e-05  0.0000000000000000e+00  1.0632850693527464e-04  0.0000000000000000e+00  1.6472343303161570e-03  2.4899022120130650e-04  4.2842682353647070e-05  0.0000000000000000e+00  1.9464028316511797e-04  4.3507608479253347e-05  -3.7916233238926715e-05  7.8180305200299476e-04  8.4575114615146826e-04  1.6521678029208356e-04  5.9526854700366538e-05  1.1761140517990828e-04  -8.3382684699992446e-05  0.0000000000000000e+00  -3.0418471726858194e-05  1.2208925335329491e-03  8.0470424350295022e-05  0.0000000000000000e+00  -1.2602983316064857e-04  0.0000000000000000e+00  0.0000000000000000e+00  -1.1468603374801421e-04  0.0000000000000000e+00  1.9188140810775822e-03  1.7908862899555729e-04  1.3258642308245883e-03  -3.0217135848060295e-05  -7.8177151079829142e-05  -1.1391168376285783e-04  0.0000000000000000e+00  1.3642072276361054e-04  7.4279842066586859e-04  7.4338619912515667e-05  1.6065721988187120e-04  1.8940425829268980e-03  3.5012998690896072e-04  3.6400975361772421e-04  0.0000000000000000e+00  0.0000000000000000e+00  0.0000000000000000e+00  9.6220374716860543e-04  6.4440417603863907e-04  1.3292667781113969e-03  1.4555707269220692e-04  4.5719079391109334e-04  2.7833615591581104e-04  -7.1843973028037019e-05  1.1681303411878039e-04  -3.8082888985356693e-06  8.4626146811701480e-05  8.5614265524899265e-05  1.5369046133938149e-04  5.3468514303330614e-04  -4.3053682328307109e-06  -4.8402581153468300e-05  -1.1540403163173884e-05  5.6457897298018878e-05  1.5574994914893024e-04  3.8220665507789043e-04  2.8233872472306447e-04  0.0000000000000000e+00  0.0000000000000000e+00  1.0868096591654791e-03  1.3278082803474599e-03  5.9727080981477427e-04  6.2226303347090559e-04  -9.3070345582634444e-06  8.0454424828450355e-04  5.1661894137457805e-06  0.0000000000000000e+00  0.0000000000000000e+00  0.0000000000000000e+00  1.1328003381933809e-04  -3.9598608287378336e-05  -4.7578182924654019e-05  -1.2236025880393441e-04  7.9978579725983455e-04  4.2145205027605990e-04  -6.9458322658859766e-05  -5.0873566601168401e-05  1.0671377676846487e-05  1.9580636643345690e-03  1.5846857200587014e-03  1.0821836081802904e-03  1.1542781162776846e-03  5.9290472733254673e-04  -9.8294415048192881e-05  4.7718160866163544e-04  -4.9088610121367607e-05  -8.3936783297446227e-06  0.0000000000000000e+00  4.5451444787126573e-05  4.8856121599371964e-04  8.1657958757877459e-06  1.0966255227932454e-04  7.7514655599058289e-04  -3.5379493899276670e-06  0.0000000000000000e+00  7.2300392203576688e-06  0.0000000000000000e+00  1.4857278187176292e-04  7.7688962376466365e-05  1.0572069613287800e-03  1.6631717759741636e-03  1.2536418973514080e-03  3.7535306017524315e-05  1.8655122615416787e-04  3.0301924473216221e-05  2.1802035667140953e-04  8.5593976755499445e-05  0.0000000000000000e+00  2.1441504073662975e-05  6.1131624601390129e-04  2.1005802426483087e-04  1.1407726725891833e-03  9.4409183370696526e-05  4.5379874871981867e-04  1.0386336172809123e-03  -1.0502449815467054e-05  0.0000000000000000e+00  1.1819234521996245e-04  3.6765939219783259e-04  5.8193496950459594e-05  4.1037856740038881e-04  -1.9579859081305642e-05  -6.1423806994940881e-05  9.7590095829129813e-04  2.3365115262927272e-04  9.2304266875803753e-05  1.9329643763316861e-04  3.3763446560881733e-05  7.8717870145865130e-06  1.4857018822358008e-04  5.4879495256123012e-05  1.1472166889535235e-03  6.0950876576281636e-04  1.7265691192142270e-05  9.0089701632330372e-05  6.5001439843591076e-04  1.1559953307086408e-03  2.7731813927411408e-04  5.0568302193806560e-05  4.1327385803070066e-05  1.6595975250839384e-03  8.7708039113543071e-04  3.4121341067723326e-04  -1.0867151438577691e-05  1.1235598252111565e-04  1.1165810868052391e-04  0.0000000000000000e+00  -4.3739255306456256e-05  6.6166682377934109e-05  6.1733879524110384e-06  -1.0112327601001663e-04  -5.8687861247774706e-05  -1.0758485118165479e-04  -8.3773813970261174e-05  1.2775068483260705e-06  0.0000000000000000e+00  3.5736412734475805e-04  0.0000000000000000e+00  3.9616406853240654e-05  5.8485892904816138e-04  5.9073461664283715e-04  -1.0861095283041893e-04  -2.5355954876885370e-05  -9.4017803640477801e-06  -2.5331453705248761e-05  3.4900618042881468e-05  1.0768529974550913e-05  2.1264396966461752e-05  0.0000000000000000e+00  1.9844493252310549e-04  4.1312230234827012e-05  9.7943570669754929e-04  3.4899168531275061e-04  1.3248388647957754e-03  0.0000000000000000e+00  0.0000000000000000e+00  2.8082257219223070e-05  6.8196663976230403e-06  -1.0481017129886732e-04  -1.3063256920222541e-04  3.9642298020033758e-05  -4.3656221403791876e-05  7.7847955145063093e-04  -8.5049242100138824e-05  -9.5980250394379777e-05  6.6497668597617729e-04  5.6752806370788346e-04  1.0046166487006545e-03  1.8182290976458219e-05  -6.5815737375069261e-06  0.0000000000000000e+00  6.1156365140428031e-04  3.8109048914256106e-05  0.0000000000000000e+00  8.4121797878774257e-05  2.5208087731271066e-04  1.8723966820553765e-03  1.6149714868049850e-03  1.8267196677212911e-03  0.0000000000000000e+00  1.6946493915006189e-03  1.4097572323868504e-03  1.4077350000253615e-03  1.2332932059280302e-04  8.5165247271966251e-04  0.0000000000000000e+00  0.0000000000000000e+00  0.0000000000000000e+00  0.0000000000000000e+00  -1.3674319564225699e-04  -5.6692921713304176e-05  0.0000000000000000e+00  -9.2840456255745518e-05  -9.3103888939993253e-06  0.0000000000000000e+00  2.8653513444714654e-04  -5.6167851010987915e-05  -3.4896531822776551e-05  -1.0014030731564992e-05  8.9220192168316703e-05  9.2306762474361786e-05  3.7898822470814903e-04  -1.2633322870129796e-04  -4.2785966713092952e-06  -7.4711872060181483e-05  7.9349187100276797e-04  6.6482300536169312e-04  4.8042724712024166e-04  1.0633360486838322e-03  -1.1128014050050006e-04  8.2826993076436008e-05  1.2797723519346136e-03  -7.2249708933160866e-05  9.3728940106803642e-04  7.4277362886059723e-04  3.1302555312244674e-05  1.1309714121367510e-05  3.6654427756822340e-04  3.2023871483278848e-04  1.9874217513707933e-04  2.7574083012344813e-04  2.7636905257044761e-04  4.2846956424340872e-05  -2.4923680091480306e-05  4.8406315472047457e-04  1.9815316246844204e-03  1.6997898819850307e-03  1.8441386481080457e-03  4.0182690900790127e-05  9.2714963436220187e-05  1.4144328249460526e-04  -1.2176434850953140e-05  1.3062486396531942e-03  -4.8243314056903908e-05  3.2585581392509632e-04  1.3783193474012793e-04  3.5945226370574428e-05  -4.6454336644076188e-05  3.4801316921266113e-04  3.3463676664797896e-04  2.1409260320051876e-04  3.6418018785383972e-04  3.1753661529383643e-04  6.2441637139752388e-04  1.1398317564613510e-03  1.6633531575147348e-04  1.2925720296658976e-03  5.3757417986635767e-04  2.9216762183078569e-06  8.5741186651304443e-05  1.6947307050608606e-04  1.0886229483172416e-03  1.5302248963358642e-03  3.4317948251366240e-05  2.0707165516458783e-04  -1.2963857709034325e-05  7.9569772507427717e-09  8.4961947746561320e-06  5.1469025693133357e-04  -8.0119397621155114e-05  1.3041087253315934e-03  0.0000000000000000e+00  -1.7366447906959107e-05  3.8373569567604093e-04  5.2250497010298831e-04  6.8770632149599913e-05  6.0478139297767432e-05  5.7234715691691367e-04  1.7764462457367297e-04  -7.7080175092034080e-05  -1.9897575990644414e-05  8.7873511568803007e-04  1.1008273704424094e-03  9.2366295113910422e-04  -1.2311668521530073e-05  1.5662966102319357e-03  1.8559189221531130e-05  -1.2317697924731999e-04  1.9068287992642533e-04  1.8584396732154469e-04  -2.0657809862599921e-05  2.2118190023527376e-04  -6.4045006118210134e-07  -2.9192830695081258e-06  1.1183628338131081e-04  2.4797278303539374e-04  2.0629685058180409e-04  -1.4681276994878737e-05  0.0000000000000000e+00  0.0000000000000000e+00  4.1417135604890413e-04  3.1837674254154036e-05  9.6299460094673244e-06  1.9690063120898844e-05  -9.2541588438618043e-05  -1.5378505704462254e-06  -3.7446882264354476e-05  0.0000000000000000e+00  1.5281074453662108e-03  6.7779893582851003e-04  2.8193922077090068e-04  1.8228918043366607e-03  -8.8146080712619598e-06  1.4369190438664759e-04  8.6758781769530728e-05  1.2122807386063392e-04  0.0000000000000000e+00  4.7495107506220383e-04  4.8766567362884823e-05  0.0000000000000000e+00  5.8503893913003488e-04  -5.9536963003515459e-05  1.4604528063628976e-03  -2.9693013501779771e-05  0.0000000000000000e+00  0.0000000000000000e+00  -4.4512689090670781e-06  1.8388462953202436e-03  9.7906269074879058e-04  7.2522000161026579e-04  3.9118682734054798e-04  3.4003592068615376e-04  6.3068329090314854e-05  0.0000000000000000e+00  2.8604496266729565e-04  0.0000000000000000e+00  0.0000000000000000e+00  0.0000000000000000e+00  1.7894424747087764e-04  7.2029397270658457e-07  7.1862899382838374e-07  8.0742834677538619e-04  -3.7577989686472697e-05  1.9669485414419327e-05  4.0767553558533593e-04  1.0196404444734375e-05  3.0025597225695332e-05  -6.5018210331050258e-05  -3.9695090115807969e-05  2.5152190881740235e-04  4.4458737541311285e-04  4.8426389121567463e-04  7.5254548173912252e-04  7.5291669138416602e-04  2.1534734415452450e-04  5.8789181499090318e-06  -6.1389041820093861e-05  -2.7656690982754905e-05  -1.1163880923275962e-05  6.5743261895884117e-06  0.0000000000000000e+00  1.5765693302513520e-03  4.3343894878787256e-04  7.0802574555656759e-04  4.2352476956048987e-04  -1.1172900832095021e-04  -1.2335485906725822e-04  1.0491102439116655e-05  2.6031944587569966e-04  1.0154233462920331e-03  8.6573993945230081e-04  0.0000000000000000e+00  1.7948836925999229e-03  2.7631939418323936e-08  1.9948794866590520e-04  1.4312352154316223e-03  8.6313567532115441e-06  4.4100988856920448e-05  9.6618475552957638e-05  1.0593844074309961e-03  1.0214425681865033e-04  -3.9163071198109275e-06  -3.1849339485285093e-06  9.1283565571831942e-06  6.4966388734426345e-06  -6.1296684410629099e-05  1.8921022155811844e-05  8.9966647264223175e-05  1.7121721781051574e-05  0.0000000000000000e+00  0.0000000000000000e+00  0.0000000000000000e+00  0.0000000000000000e+00  0.0000000000000000e+00  0.0000000000000000e+00  0.0000000000000000e+00  0.0000000000000000e+00  1.0060020059817587e-03  7.8993795210751273e-04  2.8309773987438567e-04  -8.3277742357558085e-05  -1.3179733160977909e-04  4.1969259736927670e-04  6.2527565629272959e-04  8.3142992827218859e-05  3.9926369211061426e-05  -1.0334500734756600e-04  1.0325163928291524e-05  9.7044784347964265e-05  -3.0820522016030331e-06  -6.3529309702231397e-05  -4.2587281970423516e-05  -6.4974671922560240e-05  -9.0388173768416651e-05  -8.6092122558065017e-05  1.1921177857877690e-03  1.0258267352475894e-04  1.0478344184598676e-04  5.0356628553997855e-05  3.6663283692247020e-06  -1.3196442246438845e-06  1.9648715510143114e-03  1.9899802728716330e-03  1.8291629116945309e-03  1.3418669654369924e-03  5.2644158818712292e-04  6.2779265210772422e-04  6.2957619337291779e-04  2.8643990532174881e-05  1.2246289659063153e-06  1.1747277262172231e-05  9.5499270640833872e-04  1.1975357656222186e-03  1.3214279660932362e-03  1.6244972095294820e-03  1.7885524188125245e-03  5.0430727734704105e-05  -4.5635250591967369e-05  2.0280493161688591e-04  7.4841953847370676e-04  4.7872578371390307e-04  5.1943820740365263e-04  1.4253209230699060e-03  -9.1352160384080869e-05  -1.0067726259100008e-04  1.0450947059892877e-03  -1.1739328948875246e-04  4.5998989545478364e-06  -5.7465482484851435e-05  -6.3040097487642937e-05  -3.5936751679258377e-05  1.2214114998118910e-06  -4.9150956701906166e-06  2.2207605252076711e-05  -4.5331723872629261e-05  3.7878784959352596e-05  1.0403823860695009e-03  1.6622717885941046e-04  -1.1810972741268352e-05  -3.5227415336214308e-05  2.5689755367659076e-04  1.7526813766535027e-05  1.3970571439805833e-03  2.1139816038339001e-04  3.5840387556332589e-05  -7.4075313345118419e-05  8.3743022029155085e-04  5.5700751709544718e-04  -2.3175482523230598e-05  7.7727720007672132e-05  4.5262119349010439e-05  5.4653711073668996e-06  7.0605850136842396e-04  1.9251979763074936e-04  5.8639945717794724e-05  4.0678399180304591e-04  -5.4124543533514751e-05  -1.7834754063068625e-05  2.6097098650927039e-04  -1.1896861558725277e-04  -9.8389525007924538e-07  1.4164007554181047e-04  3.3370627297837625e-04  0.0000000000000000e+00  7.4680430459342465e-06  1.5333632931151323e-03  3.2478879102335594e-05  4.7626964676812959e-04  1.1659404113060545e-04  2.0396833740364540e-04  3.9903473344285894e-05  2.5309735759218224e-04  9.8502434930189262e-05  2.1144374695959749e-04  8.3142884792496022e-04  2.5743035748629584e-04  -8.6943570372060466e-05  8.3017780177074157e-05  1.6117473425114601e-04  6.1052599735691255e-05  8.1228501113037779e-06  -3.2885812976227670e-06  -1.1765403452434379e-04  -1.0534007636990133e-04  -9.3816886939358571e-05  6.1449190283739035e-04  9.1478840237594082e-05  0.0000000000000000e+00  3.1444481989160510e-05  2.9848668851518675e-04  0.0000000000000000e+00  1.4993525177072468e-05  2.2398857458372935e-05  1.7689913299112717e-04  0.0000000000000000e+00  2.7674593095887655e-05  1.4882464299606000e-04  4.4677648308157308e-04  -5.3658978397726742e-05  8.1940970671387557e-04  1.0985489376576098e-04  3.1117743765735551e-05  9.8791998856696274e-04  2.3745703152558684e-05  3.4465409165534701e-04  2.3605506598553785e-05  1.0272055611560461e-03  1.5859815854965915e-03  1.7988469979426536e-03  1.1982157782366315e-03  1.0146535619342536e-03  1.6712359223288416e-04  3.8242293309773609e-05  0.0000000000000000e+00  1.3572175303358845e-05  0.0000000000000000e+00  2.1832931888168141e-04  2.5901535175207828e-04  1.5199307210007413e-04  5.5828506654225830e-04  -2.3712643453299911e-06  1.0265718288983274e-03  4.1491165315749316e-05  8.7207991285094219e-04  1.3827907411834305e-04  0.0000000000000000e+00  2.5367209499345301e-07  1.8977786829788673e-05  -1.4523111356835951e-06  3.3668127866527068e-04  -2.5394328662753634e-06  -1.3066058655601082e-05  3.8700770953161421e-04  4.7761734783596810e-04  3.2958950903718071e-04  5.0639459383582347e-04  1.9740324668420967e-05  7.4200888441419558e-04  3.0230195922148717e-05  1.4402748094692703e-03  9.9462552508263252e-05  -3.7108484817477605e-05  -6.8044029232560303e-05  8.7658063363652026e-06  6.9601648788223498e-04  2.5800204057514115e-05  1.2417930691804733e-03  7.0766605630768673e-05  7.6078977611148031e-04  9.0178043345986384e-04  1.1443729787374557e-03  2.3487511608648879e-04  3.8488753153268672e-04  1.7554417339925497e-04  1.2792198019917860e-03  -3.2411337315818342e-05  -1.3225591237782509e-05  1.0938700683248059e-04  1.3804727577856020e-04  7.6539271325416663e-05  1.5799670319104197e-03  1.4590123841559332e-04  -1.9851230086156993e-08  -2.6275636051072467e-06  -2.1964502399209557e-05  -1.1291933222890657e-04  2.6547365598008672e-04  2.1233770734851481e-05  -1.0551469173455481e-07  1.7340054282864565e-04  1.1091843380664898e-03  2.6559426940544887e-04  6.4725328902774591e-05  8.2556895972982929e-04  1.9669086474400241e-04  4.2902887856105656e-05  8.9786598299616848e-04  1.5151810834057294e-05  -6.8819498431753559e-05  -5.0350633693170899e-05  4.0107007005576962e-04  -4.9145034148806888e-05  1.2210903535062921e-03  1.8822560348517937e-04  1.7228715730363369e-04  9.5547570862991384e-05  2.0346855348305742e-05  5.0806823551658158e-05  1.5700947180223053e-06  1.1926575409235118e-04  5.2342111714267288e-04  1.4988944263505393e-03  1.6829616882303138e-03  1.7971147493219201e-03  1.3571954407273686e-05  5.9265323841956594e-04  -1.3107939931390275e-04  1.3550971833257508e-05  -4.9451804109172414e-06  9.0197786173600025e-04  1.4085841376744841e-03  1.0473983274468020e-03  2.2180096177622807e-04  -1.0525449556442985e-05  2.3953638724295029e-04  4.4753391620448518e-04  3.7761073007233875e-04  1.7005082279773465e-03  5.3630865302126257e-05  0.0000000000000000e+00  5.2996183255449932e-04  2.1948974953049463e-05  1.0259707185441673e-03  4.5852740235773857e-04  7.5376728826983977e-04  3.6804495225419633e-04  1.9834110368035710e-06  3.5477519227587317e-05  9.9867542611873400e-05  1.3102606869038278e-03  6.5197716892067431e-05  7.1542992113401657e-04  4.9202703051763597e-04  2.9244627724575318e-04  -7.1783564854620651e-05  3.6519177976658486e-04  1.3189664156408869e-03  9.9955173618458099e-05  1.7319057078897742e-05  1.1194329704775830e-05  1.7748672521623275e-03  1.6857964232478213e-05  1.4873968693230761e-06  -1.0011931640979109e-05  1.5801794286665705e-04  1.5313351956463018e-04  -1.1805999516693058e-04  -1.8470062611625291e-06  -1.0623548430041936e-04  -2.7073315606288323e-05  -1.5832920625871808e-05  3.0807521779811499e-04  5.2978662404868397e-05  1.3820012193128362e-04  -2.1458129289403538e-05  7.4239542296200827e-04  3.2856729123601381e-04  2.6601046273136539e-05  5.8894593377985340e-05  3.9080651031899350e-04  1.2967462579894353e-05  1.6707511604903278e-04  1.9993940958889913e-06  8.8282352109488038e-04  -1.1340456604637912e-04  -9.2108678216989629e-05  -9.4902839817654093e-05  1.2593681626438664e-04  -9.5102696414803116e-05  5.4988081539750981e-04  8.9144369259693110e-04  -2.3357261294639365e-05  7.1806121622362276e-04  4.7344592656922056e-04  1.2262315470649622e-05  -1.1125912097564342e-06  2.0569951623135699e-05  -1.1292929861132257e-05  1.0596746464454876e-04  4.0811476097285846e-04  -4.0187404918679765e-06  -2.6117720387864927e-06  -2.3442921291135927e-05  6.4583960905722140e-05  6.6315508210043836e-05  -2.1202428252442468e-05  -7.0778294524458484e-05  1.4060365994558052e-04  2.9238709663661371e-04  -3.6297410986583380e-07  3.4085377039088318e-06  2.5297858524913281e-06  4.3312496343320611e-04  1.6935056481978950e-03  8.7460158304649392e-04  -6.0386868600114842e-05  2.9205473982166943e-05  1.7085771688622170e-04  1.0261865853736928e-05  5.9538935250742168e-04  -8.0034332404932382e-05  5.9984317875004707e-04  3.4103411565771081e-06  -1.0001810930973013e-05  6.3572294780933939e-04  1.6571880232087012e-05  6.6475819059765977e-05  1.1150125219680541e-05  1.3868226122084909e-03  1.3952463711939129e-04  1.1629738236954286e-03  4.7435557898771474e-04  5.9362037500158274e-04  9.1606974800718163e-04  2.5529200767451283e-04  3.1928434042590424e-04  -7.4659277219595774e-06  -1.1094894456793580e-04  4.8909047782963542e-04  1.7056153831894807e-05  0.0000000000000000e+00  -2.0485081637748615e-06  4.9244007156027075e-04  -1.1740495710102184e-04  9.9546887268927758e-08  3.6691218173491012e-06  0.0000000000000000e+00  1.3770631717662731e-06  8.1882484790952268e-06  1.4683787303552127e-04  1.9006837927486664e-05  7.8310529791939985e-04  1.1284369309540700e-06  1.6361657704097725e-05  1.7058670985681346e-05  7.0999604745232802e-05  4.4638362721126243e-04  3.1089288830319462e-04  -1.7201576340098212e-05  -3.6694933834416666e-05  8.4034881918247160e-05  5.6454211855534084e-05  1.2196